
Host: Tricias-MBP

Timers On : Sun May 17 16:47:42 2020
Timers Off: Sun May 17 16:48:10 2020

Wall Time:       27.51 seconds

                                                       Time (seconds)
Module                                       User      System        Wall        Calls
Total PK formation time             :      1.617u      0.100s      1.030w      1 calls
HF: Form core H                     :      0.000u      0.017s      0.009w      1 calls
HF: Form S/X                        :      0.000u      0.000s      0.002w      1 calls
HF: Guess                           :      0.000u      0.000s      0.001w      1 calls
HF: Form G                          :      0.300u      0.000s      0.171w      2 calls
JK: D                               :      0.000u      0.000s      0.000w      2 calls
JK: USO2AO                          :      0.017u      0.000s      0.001w      2 calls
JK: JK                              :      0.283u      0.000s      0.169w      2 calls
PK computes JK                      :      0.283u      0.000s      0.169w      2 calls
JK: AO2USO                          :      0.000u      0.000s      0.001w      2 calls
HF: Form F                          :      0.000u      0.000s      0.000w      2 calls
HF: DIIS                            :      0.000u      0.000s      0.002w      2 calls
DIISManager::add_entry              :      0.000u      0.000s      0.001w      2 calls
DIISManager::extrapolate            :      0.000u      0.000s      0.000w      2 calls
bMatrix setup                       :      0.000u      0.000s      0.000w      2 calls
bMatrix pseudoinverse               :      0.000u      0.000s      0.000w      2 calls
New vector                          :      0.000u      0.000s      0.000w      2 calls
HF: Form C                          :      0.000u      0.000s      0.000w      2 calls
HF: Form D                          :      0.000u      0.000s      0.000w      2 calls

--------------------------------------------------------------------------------------
Total PK formation time             :      1.617u      0.100s      1.030w      1 calls
HF: Form core H                     :      0.000u      0.017s      0.009w      1 calls
HF: Form S/X                        :      0.000u      0.000s      0.002w      1 calls
HF: Guess                           :      0.000u      0.000s      0.001w      1 calls
HF: Form G                          :      0.300u      0.000s      0.171w      2 calls
| JK: D                             :      0.000u      0.000s      0.000w      2 calls
| JK: USO2AO                        :      0.017u      0.000s      0.001w      2 calls
| JK: JK                            :      0.283u      0.000s      0.169w      2 calls
| | PK computes JK                  :      0.283u      0.000s      0.169w      2 calls
| JK: AO2USO                        :      0.000u      0.000s      0.001w      2 calls
HF: Form F                          :      0.000u      0.000s      0.000w      2 calls
HF: DIIS                            :      0.000u      0.000s      0.002w      2 calls
| DIISManager::add_entry            :      0.000u      0.000s      0.001w      2 calls
| DIISManager::extrapolate          :      0.000u      0.000s      0.000w      2 calls
| | bMatrix setup                   :      0.000u      0.000s      0.000w      2 calls
| | bMatrix pseudoinverse           :      0.000u      0.000s      0.000w      2 calls
| | New vector                      :      0.000u      0.000s      0.000w      2 calls
HF: Form C                          :      0.000u      0.000s      0.000w      2 calls
HF: Form D                          :      0.000u      0.000s      0.000w      2 calls

**************************************************************************************

Host: Tricias-MBP

Timers On : Sun May 17 16:48:10 2020
Timers Off: Sun May 17 16:54:49 2020

Wall Time:      398.75 seconds

                                                       Time (seconds)
Module                                       User      System        Wall        Calls
Total PK formation time             :      2.167u      0.100s      1.361w     40 calls
HF: Form core H                     :      0.000u      0.000s      0.013w     40 calls
HF: Form S/X                        :      0.000u      0.000s      0.005w     40 calls
HF: Guess                           :      2.850u      0.150s      1.930w     40 calls
SAD Guess                           :      2.733u      0.150s      1.857w     39 calls
HF: Form G                          :      0.317u      0.017s      0.193w    312 calls
JK: D                               :      0.000u      0.000s      0.002w    312 calls
JK: USO2AO                          :      0.000u      0.000s      0.007w    312 calls
JK: JK                              :      0.283u      0.000s      0.171w    312 calls
PK computes JK                      :      0.267u      0.000s      0.169w    312 calls
JK: AO2USO                          :      0.033u      0.000s      0.003w    312 calls
HF: Form F                          :      0.000u      0.000s      0.006w    312 calls
HF: DIIS                            :      0.367u      0.017s      0.171w    273 calls
DIISManager::add_entry              :      0.000u      0.017s      0.028w    273 calls
DIISManager::extrapolate            :      0.083u      0.000s      0.022w    273 calls
bMatrix setup                       :      0.033u      0.000s      0.007w    273 calls
bMatrix pseudoinverse               :      0.033u      0.000s      0.006w    273 calls
New vector                          :      0.017u      0.000s      0.005w    273 calls
HF: Form C                          :      0.017u      0.000s      0.007w    273 calls
HF: Form D                          :      0.000u      0.000s      0.003w    312 calls

--------------------------------------------------------------------------------------
Total PK formation time             :      2.167u      0.100s      1.361w     40 calls
HF: Form core H                     :      0.000u      0.000s      0.013w     40 calls
HF: Form S/X                        :      0.000u      0.000s      0.005w     40 calls
HF: Guess                           :      2.850u      0.150s      1.930w     40 calls
| SAD Guess                         :      2.733u      0.150s      1.857w     39 calls
HF: Form G                          :      0.317u      0.017s      0.193w    312 calls
| JK: D                             :      0.000u      0.000s      0.002w    312 calls
| JK: USO2AO                        :      0.000u      0.000s      0.007w    312 calls
| JK: JK                            :      0.283u      0.000s      0.171w    312 calls
| | PK computes JK                  :      0.267u      0.000s      0.169w    312 calls
| JK: AO2USO                        :      0.033u      0.000s      0.003w    312 calls
HF: Form F                          :      0.000u      0.000s      0.006w    312 calls
HF: DIIS                            :      0.367u      0.017s      0.171w    273 calls
| DIISManager::add_entry            :      0.000u      0.017s      0.028w    273 calls
| DIISManager::extrapolate          :      0.083u      0.000s      0.022w    273 calls
| | bMatrix setup                   :      0.033u      0.000s      0.007w    273 calls
| | bMatrix pseudoinverse           :      0.033u      0.000s      0.006w    273 calls
| | New vector                      :      0.017u      0.000s      0.005w    273 calls
HF: Form C                          :      0.017u      0.000s      0.007w    273 calls
HF: Form D                          :      0.000u      0.000s      0.003w    312 calls

**************************************************************************************

Host: Tricias-MacBook-Pro.local

Timers On : Thu May 21 10:24:21 2020
Timers Off: Thu May 21 12:07:58 2020

Wall Time:     6216.67 seconds

                                                       Time (seconds)
Module                                       User      System        Wall        Calls
Total PK formation time             :      8.717u      0.183s      5.395w      6 calls
HF: Form core H                     :      0.017u      0.050s      0.053w      6 calls
HF: Form S/X                        :      0.000u      0.000s      0.013w      6 calls
HF: Guess                           :      0.017u      0.000s      0.003w      6 calls
HF: Form G                          :      1.850u      0.017s      1.114w     12 calls
JK: D                               :      0.000u      0.000s      0.000w     12 calls
JK: USO2AO                          :      0.017u      0.000s      0.006w     12 calls
JK: JK                              :      1.817u      0.017s      1.100w     12 calls
PK computes JK                      :      1.817u      0.017s      1.100w     12 calls
JK: AO2USO                          :      0.000u      0.000s      0.004w     12 calls
HF: Form F                          :      0.000u      0.000s      0.001w     12 calls
HF: DIIS                            :      0.017u      0.000s      0.011w     12 calls
DIISManager::add_entry              :      0.000u      0.000s      0.004w     12 calls
DIISManager::extrapolate            :      0.000u      0.000s      0.001w     12 calls
bMatrix setup                       :      0.000u      0.000s      0.000w     12 calls
bMatrix pseudoinverse               :      0.000u      0.000s      0.001w     12 calls
New vector                          :      0.000u      0.000s      0.000w     12 calls
HF: Form C                          :      0.000u      0.000s      0.003w     12 calls
HF: Form D                          :      0.000u      0.000s      0.000w     12 calls

--------------------------------------------------------------------------------------
Total PK formation time             :      8.717u      0.183s      5.395w      6 calls
HF: Form core H                     :      0.017u      0.050s      0.053w      6 calls
HF: Form S/X                        :      0.000u      0.000s      0.013w      6 calls
HF: Guess                           :      0.017u      0.000s      0.003w      6 calls
HF: Form G                          :      1.850u      0.017s      1.114w     12 calls
| JK: D                             :      0.000u      0.000s      0.000w     12 calls
| JK: USO2AO                        :      0.017u      0.000s      0.006w     12 calls
| JK: JK                            :      1.817u      0.017s      1.100w     12 calls
| | PK computes JK                  :      1.817u      0.017s      1.100w     12 calls
| JK: AO2USO                        :      0.000u      0.000s      0.004w     12 calls
HF: Form F                          :      0.000u      0.000s      0.001w     12 calls
HF: DIIS                            :      0.017u      0.000s      0.011w     12 calls
| DIISManager::add_entry            :      0.000u      0.000s      0.004w     12 calls
| DIISManager::extrapolate          :      0.000u      0.000s      0.001w     12 calls
| | bMatrix setup                   :      0.000u      0.000s      0.000w     12 calls
| | bMatrix pseudoinverse           :      0.000u      0.000s      0.001w     12 calls
| | New vector                      :      0.000u      0.000s      0.000w     12 calls
HF: Form C                          :      0.000u      0.000s      0.003w     12 calls
HF: Form D                          :      0.000u      0.000s      0.000w     12 calls

**************************************************************************************

Host: Tricias-MacBook-Pro.local

Timers On : Thu May 21 12:08:05 2020
Timers Off: Thu May 21 12:16:59 2020

Wall Time:      533.82 seconds

                                                       Time (seconds)
Module                                       User      System        Wall        Calls
Total PK formation time             :      1.467u      0.100s      0.938w      2 calls
HF: Form core H                     :      0.000u      0.000s      0.011w      2 calls
HF: Form S/X                        :      0.000u      0.000s      0.002w      2 calls
HF: Guess                           :      0.083u      0.000s      0.059w      2 calls
SAD Guess                           :      0.083u      0.000s      0.055w      1 calls
HF: Form G                          :      0.267u      0.000s      0.164w     10 calls
JK: D                               :      0.000u      0.000s      0.000w     10 calls
JK: USO2AO                          :      0.000u      0.000s      0.001w     10 calls
JK: JK                              :      0.267u      0.000s      0.161w     10 calls
PK computes JK                      :      0.267u      0.000s      0.161w     10 calls
JK: AO2USO                          :      0.000u      0.000s      0.001w     10 calls
HF: Form F                          :      0.000u      0.000s      0.000w     10 calls
HF: DIIS                            :      0.017u      0.017s      0.006w      9 calls
DIISManager::add_entry              :      0.000u      0.017s      0.001w      9 calls
DIISManager::extrapolate            :      0.000u      0.000s      0.001w      9 calls
bMatrix setup                       :      0.000u      0.000s      0.000w      9 calls
bMatrix pseudoinverse               :      0.000u      0.000s      0.000w      9 calls
New vector                          :      0.000u      0.000s      0.000w      9 calls
HF: Form C                          :      0.000u      0.000s      0.001w      9 calls
HF: Form D                          :      0.000u      0.000s      0.000w     10 calls

--------------------------------------------------------------------------------------
Total PK formation time             :      1.467u      0.100s      0.938w      2 calls
HF: Form core H                     :      0.000u      0.000s      0.011w      2 calls
HF: Form S/X                        :      0.000u      0.000s      0.002w      2 calls
HF: Guess                           :      0.083u      0.000s      0.059w      2 calls
| SAD Guess                         :      0.083u      0.000s      0.055w      1 calls
HF: Form G                          :      0.267u      0.000s      0.164w     10 calls
| JK: D                             :      0.000u      0.000s      0.000w     10 calls
| JK: USO2AO                        :      0.000u      0.000s      0.001w     10 calls
| JK: JK                            :      0.267u      0.000s      0.161w     10 calls
| | PK computes JK                  :      0.267u      0.000s      0.161w     10 calls
| JK: AO2USO                        :      0.000u      0.000s      0.001w     10 calls
HF: Form F                          :      0.000u      0.000s      0.000w     10 calls
HF: DIIS                            :      0.017u      0.017s      0.006w      9 calls
| DIISManager::add_entry            :      0.000u      0.017s      0.001w      9 calls
| DIISManager::extrapolate          :      0.000u      0.000s      0.001w      9 calls
| | bMatrix setup                   :      0.000u      0.000s      0.000w      9 calls
| | bMatrix pseudoinverse           :      0.000u      0.000s      0.000w      9 calls
| | New vector                      :      0.000u      0.000s      0.000w      9 calls
HF: Form C                          :      0.000u      0.000s      0.001w      9 calls
HF: Form D                          :      0.000u      0.000s      0.000w     10 calls

**************************************************************************************

Host: Tricias-MBP

Timers On : Sat May 23 16:24:13 2020
Timers Off: Sat May 23 17:26:19 2020

Wall Time:     3725.85 seconds

                                                       Time (seconds)
Module                                       User      System        Wall        Calls
Total PK formation time             :      2.250u      0.117s      1.489w     21 calls
HF: Form core H                     :      0.017u      0.067s      0.049w     21 calls
HF: Form S/X                        :      0.000u      0.000s      0.014w     21 calls
HF: Guess                           :      1.683u      0.067s      1.096w     21 calls
SAD Guess                           :      1.633u      0.067s      1.056w     20 calls
HF: Form G                          :      0.333u      0.000s      0.216w    180 calls
JK: D                               :      0.000u      0.000s      0.001w    180 calls
JK: USO2AO                          :      0.017u      0.000s      0.006w    180 calls
JK: JK                              :      0.317u      0.000s      0.197w    180 calls
PK computes JK                      :      0.317u      0.000s      0.196w    180 calls
JK: AO2USO                          :      0.000u      0.000s      0.004w    180 calls
HF: Form F                          :      0.000u      0.000s      0.004w    180 calls
HF: DIIS                            :      0.150u      0.033s      0.101w    160 calls
DIISManager::add_entry              :      0.000u      0.017s      0.017w    160 calls
DIISManager::extrapolate            :      0.050u      0.017s      0.014w    160 calls
bMatrix setup                       :      0.017u      0.000s      0.005w    160 calls
bMatrix pseudoinverse               :      0.017u      0.000s      0.004w    160 calls
New vector                          :      0.000u      0.000s      0.003w    160 calls
HF: Form C                          :      0.000u      0.000s      0.008w    160 calls
HF: Form D                          :      0.017u      0.000s      0.002w    180 calls

--------------------------------------------------------------------------------------
Total PK formation time             :      2.250u      0.117s      1.489w     21 calls
HF: Form core H                     :      0.017u      0.067s      0.049w     21 calls
HF: Form S/X                        :      0.000u      0.000s      0.014w     21 calls
HF: Guess                           :      1.683u      0.067s      1.096w     21 calls
| SAD Guess                         :      1.633u      0.067s      1.056w     20 calls
HF: Form G                          :      0.333u      0.000s      0.216w    180 calls
| JK: D                             :      0.000u      0.000s      0.001w    180 calls
| JK: USO2AO                        :      0.017u      0.000s      0.006w    180 calls
| JK: JK                            :      0.317u      0.000s      0.197w    180 calls
| | PK computes JK                  :      0.317u      0.000s      0.196w    180 calls
| JK: AO2USO                        :      0.000u      0.000s      0.004w    180 calls
HF: Form F                          :      0.000u      0.000s      0.004w    180 calls
HF: DIIS                            :      0.150u      0.033s      0.101w    160 calls
| DIISManager::add_entry            :      0.000u      0.017s      0.017w    160 calls
| DIISManager::extrapolate          :      0.050u      0.017s      0.014w    160 calls
| | bMatrix setup                   :      0.017u      0.000s      0.005w    160 calls
| | bMatrix pseudoinverse           :      0.017u      0.000s      0.004w    160 calls
| | New vector                      :      0.000u      0.000s      0.003w    160 calls
HF: Form C                          :      0.000u      0.000s      0.008w    160 calls
HF: Form D                          :      0.017u      0.000s      0.002w    180 calls

**************************************************************************************

Host: Tricias-MBP

Timers On : Sat May 23 17:26:20 2020
Timers Off: Sat May 23 18:47:22 2020

Wall Time:     4862.00 seconds

                                                       Time (seconds)
Module                                       User      System        Wall        Calls
Total PK formation time             :      2.550u      0.100s      1.579w     23 calls
HF: Form core H                     :      0.017u      0.100s      0.055w     23 calls
HF: Form S/X                        :      0.000u      0.000s      0.005w     23 calls
HF: Guess                           :      2.083u      0.083s      1.339w     23 calls
SAD Guess                           :      2.017u      0.067s      1.291w     22 calls
HF: Form G                          :      0.333u      0.000s      0.228w    196 calls
JK: D                               :      0.017u      0.000s      0.002w    196 calls
JK: USO2AO                          :      0.000u      0.000s      0.007w    196 calls
JK: JK                              :      0.317u      0.000s      0.207w    196 calls
PK computes JK                      :      0.317u      0.000s      0.206w    196 calls
JK: AO2USO                          :      0.000u      0.000s      0.005w    196 calls
HF: Form F                          :      0.017u      0.000s      0.006w    196 calls
HF: DIIS                            :      0.150u      0.017s      0.126w    174 calls
DIISManager::add_entry              :      0.000u      0.017s      0.022w    174 calls
DIISManager::extrapolate            :      0.017u      0.000s      0.018w    174 calls
bMatrix setup                       :      0.000u      0.000s      0.006w    174 calls
bMatrix pseudoinverse               :      0.000u      0.000s      0.005w    174 calls
New vector                          :      0.017u      0.000s      0.004w    174 calls
HF: Form C                          :      0.033u      0.000s      0.011w    174 calls
HF: Form D                          :      0.000u      0.000s      0.002w    196 calls

--------------------------------------------------------------------------------------
Total PK formation time             :      2.550u      0.100s      1.579w     23 calls
HF: Form core H                     :      0.017u      0.100s      0.055w     23 calls
HF: Form S/X                        :      0.000u      0.000s      0.005w     23 calls
HF: Guess                           :      2.083u      0.083s      1.339w     23 calls
| SAD Guess                         :      2.017u      0.067s      1.291w     22 calls
HF: Form G                          :      0.333u      0.000s      0.228w    196 calls
| JK: D                             :      0.017u      0.000s      0.002w    196 calls
| JK: USO2AO                        :      0.000u      0.000s      0.007w    196 calls
| JK: JK                            :      0.317u      0.000s      0.207w    196 calls
| | PK computes JK                  :      0.317u      0.000s      0.206w    196 calls
| JK: AO2USO                        :      0.000u      0.000s      0.005w    196 calls
HF: Form F                          :      0.017u      0.000s      0.006w    196 calls
HF: DIIS                            :      0.150u      0.017s      0.126w    174 calls
| DIISManager::add_entry            :      0.000u      0.017s      0.022w    174 calls
| DIISManager::extrapolate          :      0.017u      0.000s      0.018w    174 calls
| | bMatrix setup                   :      0.000u      0.000s      0.006w    174 calls
| | bMatrix pseudoinverse           :      0.000u      0.000s      0.005w    174 calls
| | New vector                      :      0.017u      0.000s      0.004w    174 calls
HF: Form C                          :      0.033u      0.000s      0.011w    174 calls
HF: Form D                          :      0.000u      0.000s      0.002w    196 calls

**************************************************************************************

Host: Tricias-MBP

Timers On : Sat May 23 18:47:23 2020
Timers Off: Sat May 23 18:58:39 2020

Wall Time:      675.24 seconds

                                                       Time (seconds)
Module                                       User      System        Wall        Calls
Total PK formation time             :      2.467u      0.100s      1.543w     22 calls
HF: Form core H                     :      0.017u      0.050s      0.052w     22 calls
HF: Form S/X                        :      0.000u      0.000s      0.005w     22 calls
HF: Guess                           :      1.900u      0.150s      1.215w     22 calls
SAD Guess                           :      1.833u      0.150s      1.171w     21 calls
HF: Form G                          :      0.383u      0.000s      0.222w    188 calls
JK: D                               :      0.000u      0.000s      0.002w    188 calls
JK: USO2AO                          :      0.017u      0.000s      0.006w    188 calls
JK: JK                              :      0.333u      0.000s      0.204w    188 calls
PK computes JK                      :      0.333u      0.000s      0.203w    188 calls
JK: AO2USO                          :      0.033u      0.000s      0.004w    188 calls
HF: Form F                          :      0.000u      0.000s      0.005w    188 calls
HF: DIIS                            :      0.200u      0.017s      0.114w    167 calls
DIISManager::add_entry              :      0.000u      0.017s      0.019w    167 calls
DIISManager::extrapolate            :      0.033u      0.000s      0.016w    167 calls
bMatrix setup                       :      0.033u      0.000s      0.006w    167 calls
bMatrix pseudoinverse               :      0.000u      0.000s      0.004w    167 calls
New vector                          :      0.000u      0.000s      0.004w    167 calls
HF: Form C                          :      0.033u      0.000s      0.009w    167 calls
HF: Form D                          :      0.000u      0.000s      0.002w    188 calls

--------------------------------------------------------------------------------------
Total PK formation time             :      2.467u      0.100s      1.543w     22 calls
HF: Form core H                     :      0.017u      0.050s      0.052w     22 calls
HF: Form S/X                        :      0.000u      0.000s      0.005w     22 calls
HF: Guess                           :      1.900u      0.150s      1.215w     22 calls
| SAD Guess                         :      1.833u      0.150s      1.171w     21 calls
HF: Form G                          :      0.383u      0.000s      0.222w    188 calls
| JK: D                             :      0.000u      0.000s      0.002w    188 calls
| JK: USO2AO                        :      0.017u      0.000s      0.006w    188 calls
| JK: JK                            :      0.333u      0.000s      0.204w    188 calls
| | PK computes JK                  :      0.333u      0.000s      0.203w    188 calls
| JK: AO2USO                        :      0.033u      0.000s      0.004w    188 calls
HF: Form F                          :      0.000u      0.000s      0.005w    188 calls
HF: DIIS                            :      0.200u      0.017s      0.114w    167 calls
| DIISManager::add_entry            :      0.000u      0.017s      0.019w    167 calls
| DIISManager::extrapolate          :      0.033u      0.000s      0.016w    167 calls
| | bMatrix setup                   :      0.033u      0.000s      0.006w    167 calls
| | bMatrix pseudoinverse           :      0.000u      0.000s      0.004w    167 calls
| | New vector                      :      0.000u      0.000s      0.004w    167 calls
HF: Form C                          :      0.033u      0.000s      0.009w    167 calls
HF: Form D                          :      0.000u      0.000s      0.002w    188 calls

**************************************************************************************

Host: Tricias-MBP

Timers On : Sat May 23 18:58:44 2020
Timers Off: Sat May 23 19:04:23 2020

Wall Time:      339.18 seconds

                                                       Time (seconds)
Module                                       User      System        Wall        Calls
Total PK formation time             :      2.500u      0.117s      1.605w     22 calls
HF: Form core H                     :      0.017u      0.033s      0.057w     22 calls
HF: Form S/X                        :      0.017u      0.000s      0.005w     22 calls
HF: Guess                           :      2.067u      0.083s      1.303w     22 calls
SAD Guess                           :      1.983u      0.083s      1.254w     21 calls
HF: Form G                          :      0.450u      0.000s      0.276w    188 calls
JK: D                               :      0.000u      0.000s      0.002w    188 calls
JK: USO2AO                          :      0.017u      0.000s      0.007w    188 calls
JK: JK                              :      0.433u      0.000s      0.255w    188 calls
PK computes JK                      :      0.433u      0.000s      0.254w    188 calls
JK: AO2USO                          :      0.000u      0.000s      0.005w    188 calls
HF: Form F                          :      0.000u      0.000s      0.006w    188 calls
HF: DIIS                            :      0.133u      0.050s      0.130w    167 calls
DIISManager::add_entry              :      0.000u      0.033s      0.022w    167 calls
DIISManager::extrapolate            :      0.017u      0.017s      0.019w    167 calls
bMatrix setup                       :      0.000u      0.000s      0.007w    167 calls
bMatrix pseudoinverse               :      0.017u      0.017s      0.006w    167 calls
New vector                          :      0.000u      0.000s      0.005w    167 calls
HF: Form C                          :      0.017u      0.000s      0.011w    167 calls
HF: Form D                          :      0.000u      0.000s      0.002w    188 calls

--------------------------------------------------------------------------------------
Total PK formation time             :      2.500u      0.117s      1.605w     22 calls
HF: Form core H                     :      0.017u      0.033s      0.057w     22 calls
HF: Form S/X                        :      0.017u      0.000s      0.005w     22 calls
HF: Guess                           :      2.067u      0.083s      1.303w     22 calls
| SAD Guess                         :      1.983u      0.083s      1.254w     21 calls
HF: Form G                          :      0.450u      0.000s      0.276w    188 calls
| JK: D                             :      0.000u      0.000s      0.002w    188 calls
| JK: USO2AO                        :      0.017u      0.000s      0.007w    188 calls
| JK: JK                            :      0.433u      0.000s      0.255w    188 calls
| | PK computes JK                  :      0.433u      0.000s      0.254w    188 calls
| JK: AO2USO                        :      0.000u      0.000s      0.005w    188 calls
HF: Form F                          :      0.000u      0.000s      0.006w    188 calls
HF: DIIS                            :      0.133u      0.050s      0.130w    167 calls
| DIISManager::add_entry            :      0.000u      0.033s      0.022w    167 calls
| DIISManager::extrapolate          :      0.017u      0.017s      0.019w    167 calls
| | bMatrix setup                   :      0.000u      0.000s      0.007w    167 calls
| | bMatrix pseudoinverse           :      0.017u      0.017s      0.006w    167 calls
| | New vector                      :      0.000u      0.000s      0.005w    167 calls
HF: Form C                          :      0.017u      0.000s      0.011w    167 calls
HF: Form D                          :      0.000u      0.000s      0.002w    188 calls

**************************************************************************************

Host: Tricias-MBP

Timers On : Sat May 23 19:04:24 2020
Timers Off: Sat May 23 19:05:42 2020

Wall Time:       77.70 seconds

                                                       Time (seconds)
Module                                       User      System        Wall        Calls
Total PK formation time             :      2.583u      0.117s      1.610w     22 calls
HF: Form core H                     :      0.000u      0.117s      0.058w     22 calls
HF: Form S/X                        :      0.000u      0.000s      0.005w     22 calls
HF: Guess                           :      2.133u      0.100s      1.333w     22 calls
SAD Guess                           :      2.067u      0.100s      1.283w     21 calls
HF: Form G                          :      0.417u      0.000s      0.240w    188 calls
JK: D                               :      0.000u      0.000s      0.002w    188 calls
JK: USO2AO                          :      0.017u      0.000s      0.007w    188 calls
JK: JK                              :      0.400u      0.000s      0.218w    188 calls
PK computes JK                      :      0.400u      0.000s      0.217w    188 calls
JK: AO2USO                          :      0.000u      0.000s      0.005w    188 calls
HF: Form F                          :      0.017u      0.000s      0.006w    188 calls
HF: DIIS                            :      0.183u      0.033s      0.128w    167 calls
DIISManager::add_entry              :      0.000u      0.033s      0.022w    167 calls
DIISManager::extrapolate            :      0.033u      0.000s      0.019w    167 calls
bMatrix setup                       :      0.000u      0.000s      0.007w    167 calls
bMatrix pseudoinverse               :      0.033u      0.000s      0.006w    167 calls
New vector                          :      0.000u      0.000s      0.004w    167 calls
HF: Form C                          :      0.000u      0.000s      0.011w    167 calls
HF: Form D                          :      0.000u      0.000s      0.002w    188 calls

--------------------------------------------------------------------------------------
Total PK formation time             :      2.583u      0.117s      1.610w     22 calls
HF: Form core H                     :      0.000u      0.117s      0.058w     22 calls
HF: Form S/X                        :      0.000u      0.000s      0.005w     22 calls
HF: Guess                           :      2.133u      0.100s      1.333w     22 calls
| SAD Guess                         :      2.067u      0.100s      1.283w     21 calls
HF: Form G                          :      0.417u      0.000s      0.240w    188 calls
| JK: D                             :      0.000u      0.000s      0.002w    188 calls
| JK: USO2AO                        :      0.017u      0.000s      0.007w    188 calls
| JK: JK                            :      0.400u      0.000s      0.218w    188 calls
| | PK computes JK                  :      0.400u      0.000s      0.217w    188 calls
| JK: AO2USO                        :      0.000u      0.000s      0.005w    188 calls
HF: Form F                          :      0.017u      0.000s      0.006w    188 calls
HF: DIIS                            :      0.183u      0.033s      0.128w    167 calls
| DIISManager::add_entry            :      0.000u      0.033s      0.022w    167 calls
| DIISManager::extrapolate          :      0.033u      0.000s      0.019w    167 calls
| | bMatrix setup                   :      0.000u      0.000s      0.007w    167 calls
| | bMatrix pseudoinverse           :      0.033u      0.000s      0.006w    167 calls
| | New vector                      :      0.000u      0.000s      0.004w    167 calls
HF: Form C                          :      0.000u      0.000s      0.011w    167 calls
HF: Form D                          :      0.000u      0.000s      0.002w    188 calls

**************************************************************************************

Host: Tricias-MBP

Timers On : Sat May 23 19:05:43 2020
Timers Off: Sat May 23 19:06:49 2020

Wall Time:       65.81 seconds

                                                       Time (seconds)
Module                                       User      System        Wall        Calls
Total PK formation time             :      2.717u      0.117s      1.705w     22 calls
HF: Form core H                     :      0.000u      0.050s      0.061w     22 calls
HF: Form S/X                        :      0.000u      0.000s      0.005w     22 calls
HF: Guess                           :      2.067u      0.050s      1.305w     22 calls
SAD Guess                           :      1.950u      0.050s      1.256w     21 calls
HF: Form G                          :      0.517u      0.000s      0.295w    188 calls
JK: D                               :      0.017u      0.000s      0.002w    188 calls
JK: USO2AO                          :      0.017u      0.000s      0.007w    188 calls
JK: JK                              :      0.467u      0.000s      0.272w    188 calls
PK computes JK                      :      0.450u      0.000s      0.271w    188 calls
JK: AO2USO                          :      0.000u      0.000s      0.006w    188 calls
HF: Form F                          :      0.017u      0.000s      0.007w    188 calls
HF: DIIS                            :      0.133u      0.083s      0.131w    167 calls
DIISManager::add_entry              :      0.000u      0.033s      0.023w    167 calls
DIISManager::extrapolate            :      0.017u      0.033s      0.020w    167 calls
bMatrix setup                       :      0.000u      0.017s      0.007w    167 calls
bMatrix pseudoinverse               :      0.017u      0.000s      0.006w    167 calls
New vector                          :      0.000u      0.000s      0.005w    167 calls
HF: Form C                          :      0.017u      0.000s      0.011w    167 calls
HF: Form D                          :      0.017u      0.000s      0.002w    188 calls

--------------------------------------------------------------------------------------
Total PK formation time             :      2.717u      0.117s      1.705w     22 calls
HF: Form core H                     :      0.000u      0.050s      0.061w     22 calls
HF: Form S/X                        :      0.000u      0.000s      0.005w     22 calls
HF: Guess                           :      2.067u      0.050s      1.305w     22 calls
| SAD Guess                         :      1.950u      0.050s      1.256w     21 calls
HF: Form G                          :      0.517u      0.000s      0.295w    188 calls
| JK: D                             :      0.017u      0.000s      0.002w    188 calls
| JK: USO2AO                        :      0.017u      0.000s      0.007w    188 calls
| JK: JK                            :      0.467u      0.000s      0.272w    188 calls
| | PK computes JK                  :      0.450u      0.000s      0.271w    188 calls
| JK: AO2USO                        :      0.000u      0.000s      0.006w    188 calls
HF: Form F                          :      0.017u      0.000s      0.007w    188 calls
HF: DIIS                            :      0.133u      0.083s      0.131w    167 calls
| DIISManager::add_entry            :      0.000u      0.033s      0.023w    167 calls
| DIISManager::extrapolate          :      0.017u      0.033s      0.020w    167 calls
| | bMatrix setup                   :      0.000u      0.017s      0.007w    167 calls
| | bMatrix pseudoinverse           :      0.017u      0.000s      0.006w    167 calls
| | New vector                      :      0.000u      0.000s      0.005w    167 calls
HF: Form C                          :      0.017u      0.000s      0.011w    167 calls
HF: Form D                          :      0.017u      0.000s      0.002w    188 calls

**************************************************************************************

Host: Tricias-MBP

Timers On : Sat May 23 19:06:50 2020
Timers Off: Sat May 23 19:07:35 2020

Wall Time:       45.01 seconds

                                                       Time (seconds)
Module                                       User      System        Wall        Calls
Total PK formation time             :      2.367u      0.100s      1.489w     22 calls
HF: Form core H                     :      0.000u      0.100s      0.052w     22 calls
HF: Form S/X                        :      0.000u      0.000s      0.005w     22 calls
HF: Guess                           :      1.817u      0.017s      1.167w     22 calls
SAD Guess                           :      1.750u      0.017s      1.125w     21 calls
HF: Form G                          :      0.433u      0.000s      0.230w    188 calls
JK: D                               :      0.000u      0.000s      0.002w    188 calls
JK: USO2AO                          :      0.033u      0.000s      0.006w    188 calls
JK: JK                              :      0.383u      0.000s      0.212w    188 calls
PK computes JK                      :      0.383u      0.000s      0.211w    188 calls
JK: AO2USO                          :      0.000u      0.000s      0.004w    188 calls
HF: Form F                          :      0.017u      0.000s      0.005w    188 calls
HF: DIIS                            :      0.283u      0.017s      0.114w    167 calls
DIISManager::add_entry              :      0.000u      0.017s      0.019w    167 calls
DIISManager::extrapolate            :      0.017u      0.000s      0.016w    167 calls
bMatrix setup                       :      0.000u      0.000s      0.006w    167 calls
bMatrix pseudoinverse               :      0.000u      0.000s      0.005w    167 calls
New vector                          :      0.017u      0.000s      0.004w    167 calls
HF: Form C                          :      0.000u      0.000s      0.010w    167 calls
HF: Form D                          :      0.017u      0.000s      0.002w    188 calls

--------------------------------------------------------------------------------------
Total PK formation time             :      2.367u      0.100s      1.489w     22 calls
HF: Form core H                     :      0.000u      0.100s      0.052w     22 calls
HF: Form S/X                        :      0.000u      0.000s      0.005w     22 calls
HF: Guess                           :      1.817u      0.017s      1.167w     22 calls
| SAD Guess                         :      1.750u      0.017s      1.125w     21 calls
HF: Form G                          :      0.433u      0.000s      0.230w    188 calls
| JK: D                             :      0.000u      0.000s      0.002w    188 calls
| JK: USO2AO                        :      0.033u      0.000s      0.006w    188 calls
| JK: JK                            :      0.383u      0.000s      0.212w    188 calls
| | PK computes JK                  :      0.383u      0.000s      0.211w    188 calls
| JK: AO2USO                        :      0.000u      0.000s      0.004w    188 calls
HF: Form F                          :      0.017u      0.000s      0.005w    188 calls
HF: DIIS                            :      0.283u      0.017s      0.114w    167 calls
| DIISManager::add_entry            :      0.000u      0.017s      0.019w    167 calls
| DIISManager::extrapolate          :      0.017u      0.000s      0.016w    167 calls
| | bMatrix setup                   :      0.000u      0.000s      0.006w    167 calls
| | bMatrix pseudoinverse           :      0.000u      0.000s      0.005w    167 calls
| | New vector                      :      0.017u      0.000s      0.004w    167 calls
HF: Form C                          :      0.000u      0.000s      0.010w    167 calls
HF: Form D                          :      0.017u      0.000s      0.002w    188 calls

**************************************************************************************

Host: Tricias-MBP

Timers On : Sat May 23 19:07:36 2020
Timers Off: Sat May 23 19:17:14 2020

Wall Time:      578.04 seconds

                                                       Time (seconds)
Module                                       User      System        Wall        Calls
Total PK formation time             :      2.900u      0.117s      1.832w     22 calls
HF: Form core H                     :      0.017u      0.083s      0.058w     22 calls
HF: Form S/X                        :      0.017u      0.000s      0.005w     22 calls
HF: Guess                           :      2.200u      0.117s      1.390w     22 calls
SAD Guess                           :      2.117u      0.117s      1.340w     21 calls
HF: Form G                          :      0.567u      0.000s      0.290w    188 calls
JK: D                               :      0.000u      0.000s      0.002w    188 calls
JK: USO2AO                          :      0.000u      0.000s      0.007w    188 calls
JK: JK                              :      0.517u      0.000s      0.267w    188 calls
PK computes JK                      :      0.517u      0.000s      0.266w    188 calls
JK: AO2USO                          :      0.050u      0.000s      0.006w    188 calls
HF: Form F                          :      0.033u      0.000s      0.007w    188 calls
HF: DIIS                            :      0.167u      0.050s      0.136w    167 calls
DIISManager::add_entry              :      0.000u      0.033s      0.024w    167 calls
DIISManager::extrapolate            :      0.033u      0.017s      0.020w    167 calls
bMatrix setup                       :      0.000u      0.000s      0.007w    167 calls
bMatrix pseudoinverse               :      0.017u      0.017s      0.006w    167 calls
New vector                          :      0.017u      0.000s      0.005w    167 calls
HF: Form C                          :      0.017u      0.000s      0.012w    167 calls
HF: Form D                          :      0.000u      0.000s      0.002w    188 calls

--------------------------------------------------------------------------------------
Total PK formation time             :      2.900u      0.117s      1.832w     22 calls
HF: Form core H                     :      0.017u      0.083s      0.058w     22 calls
HF: Form S/X                        :      0.017u      0.000s      0.005w     22 calls
HF: Guess                           :      2.200u      0.117s      1.390w     22 calls
| SAD Guess                         :      2.117u      0.117s      1.340w     21 calls
HF: Form G                          :      0.567u      0.000s      0.290w    188 calls
| JK: D                             :      0.000u      0.000s      0.002w    188 calls
| JK: USO2AO                        :      0.000u      0.000s      0.007w    188 calls
| JK: JK                            :      0.517u      0.000s      0.267w    188 calls
| | PK computes JK                  :      0.517u      0.000s      0.266w    188 calls
| JK: AO2USO                        :      0.050u      0.000s      0.006w    188 calls
HF: Form F                          :      0.033u      0.000s      0.007w    188 calls
HF: DIIS                            :      0.167u      0.050s      0.136w    167 calls
| DIISManager::add_entry            :      0.000u      0.033s      0.024w    167 calls
| DIISManager::extrapolate          :      0.033u      0.017s      0.020w    167 calls
| | bMatrix setup                   :      0.000u      0.000s      0.007w    167 calls
| | bMatrix pseudoinverse           :      0.017u      0.017s      0.006w    167 calls
| | New vector                      :      0.017u      0.000s      0.005w    167 calls
HF: Form C                          :      0.017u      0.000s      0.012w    167 calls
HF: Form D                          :      0.000u      0.000s      0.002w    188 calls

**************************************************************************************

Host: Tricias-MBP

Timers On : Sat May 23 19:17:15 2020
Timers Off: Sat May 23 19:37:13 2020

Wall Time:     1198.94 seconds

                                                       Time (seconds)
Module                                       User      System        Wall        Calls
Total PK formation time             :      2.267u      0.100s      1.455w     22 calls
HF: Form core H                     :      0.067u      0.050s      0.048w     22 calls
HF: Form S/X                        :      0.017u      0.000s      0.005w     22 calls
HF: Guess                           :      1.800u      0.100s      1.148w     22 calls
SAD Guess                           :      1.683u      0.100s      1.107w     21 calls
HF: Form G                          :      0.333u      0.000s      0.219w    188 calls
JK: D                               :      0.000u      0.000s      0.002w    188 calls
JK: USO2AO                          :      0.017u      0.000s      0.006w    188 calls
JK: JK                              :      0.317u      0.000s      0.201w    188 calls
PK computes JK                      :      0.317u      0.000s      0.200w    188 calls
JK: AO2USO                          :      0.000u      0.000s      0.004w    188 calls
HF: Form F                          :      0.000u      0.000s      0.005w    188 calls
HF: DIIS                            :      0.150u      0.033s      0.111w    167 calls
DIISManager::add_entry              :      0.017u      0.017s      0.019w    167 calls
DIISManager::extrapolate            :      0.000u      0.017s      0.016w    167 calls
bMatrix setup                       :      0.000u      0.000s      0.006w    167 calls
bMatrix pseudoinverse               :      0.000u      0.000s      0.004w    167 calls
New vector                          :      0.000u      0.017s      0.004w    167 calls
HF: Form C                          :      0.017u      0.000s      0.009w    167 calls
HF: Form D                          :      0.000u      0.000s      0.002w    188 calls

--------------------------------------------------------------------------------------
Total PK formation time             :      2.267u      0.100s      1.455w     22 calls
HF: Form core H                     :      0.067u      0.050s      0.048w     22 calls
HF: Form S/X                        :      0.017u      0.000s      0.005w     22 calls
HF: Guess                           :      1.800u      0.100s      1.148w     22 calls
| SAD Guess                         :      1.683u      0.100s      1.107w     21 calls
HF: Form G                          :      0.333u      0.000s      0.219w    188 calls
| JK: D                             :      0.000u      0.000s      0.002w    188 calls
| JK: USO2AO                        :      0.017u      0.000s      0.006w    188 calls
| JK: JK                            :      0.317u      0.000s      0.201w    188 calls
| | PK computes JK                  :      0.317u      0.000s      0.200w    188 calls
| JK: AO2USO                        :      0.000u      0.000s      0.004w    188 calls
HF: Form F                          :      0.000u      0.000s      0.005w    188 calls
HF: DIIS                            :      0.150u      0.033s      0.111w    167 calls
| DIISManager::add_entry            :      0.017u      0.017s      0.019w    167 calls
| DIISManager::extrapolate          :      0.000u      0.017s      0.016w    167 calls
| | bMatrix setup                   :      0.000u      0.000s      0.006w    167 calls
| | bMatrix pseudoinverse           :      0.000u      0.000s      0.004w    167 calls
| | New vector                      :      0.000u      0.017s      0.004w    167 calls
HF: Form C                          :      0.017u      0.000s      0.009w    167 calls
HF: Form D                          :      0.000u      0.000s      0.002w    188 calls

**************************************************************************************

Host: Tricias-MBP

Timers On : Sat May 23 19:37:15 2020
Timers Off: Sat May 23 19:38:39 2020

Wall Time:       84.71 seconds

                                                       Time (seconds)
Module                                       User      System        Wall        Calls
Total PK formation time             :      2.050u      0.167s      1.337w      4 calls
HF: Form core H                     :      0.000u      0.033s      0.014w      4 calls
HF: Form S/X                        :      0.000u      0.000s      0.002w      4 calls
HF: Guess                           :      0.250u      0.017s      0.156w      4 calls
SAD Guess                           :      0.233u      0.017s      0.149w      3 calls
HF: Form G                          :      0.350u      0.000s      0.214w     26 calls
JK: D                               :      0.000u      0.000s      0.000w     26 calls
JK: USO2AO                          :      0.000u      0.000s      0.002w     26 calls
JK: JK                              :      0.350u      0.000s      0.210w     26 calls
PK computes JK                      :      0.350u      0.000s      0.210w     26 calls
JK: AO2USO                          :      0.000u      0.000s      0.001w     26 calls
HF: Form F                          :      0.000u      0.000s      0.001w     26 calls
HF: DIIS                            :      0.017u      0.000s      0.017w     23 calls
DIISManager::add_entry              :      0.000u      0.000s      0.003w     23 calls
DIISManager::extrapolate            :      0.000u      0.000s      0.002w     23 calls
bMatrix setup                       :      0.000u      0.000s      0.001w     23 calls
bMatrix pseudoinverse               :      0.000u      0.000s      0.001w     23 calls
New vector                          :      0.000u      0.000s      0.000w     23 calls
HF: Form C                          :      0.000u      0.000s      0.001w     23 calls
HF: Form D                          :      0.000u      0.000s      0.000w     26 calls

--------------------------------------------------------------------------------------
Total PK formation time             :      2.050u      0.167s      1.337w      4 calls
HF: Form core H                     :      0.000u      0.033s      0.014w      4 calls
HF: Form S/X                        :      0.000u      0.000s      0.002w      4 calls
HF: Guess                           :      0.250u      0.017s      0.156w      4 calls
| SAD Guess                         :      0.233u      0.017s      0.149w      3 calls
HF: Form G                          :      0.350u      0.000s      0.214w     26 calls
| JK: D                             :      0.000u      0.000s      0.000w     26 calls
| JK: USO2AO                        :      0.000u      0.000s      0.002w     26 calls
| JK: JK                            :      0.350u      0.000s      0.210w     26 calls
| | PK computes JK                  :      0.350u      0.000s      0.210w     26 calls
| JK: AO2USO                        :      0.000u      0.000s      0.001w     26 calls
HF: Form F                          :      0.000u      0.000s      0.001w     26 calls
HF: DIIS                            :      0.017u      0.000s      0.017w     23 calls
| DIISManager::add_entry            :      0.000u      0.000s      0.003w     23 calls
| DIISManager::extrapolate          :      0.000u      0.000s      0.002w     23 calls
| | bMatrix setup                   :      0.000u      0.000s      0.001w     23 calls
| | bMatrix pseudoinverse           :      0.000u      0.000s      0.001w     23 calls
| | New vector                      :      0.000u      0.000s      0.000w     23 calls
HF: Form C                          :      0.000u      0.000s      0.001w     23 calls
HF: Form D                          :      0.000u      0.000s      0.000w     26 calls

**************************************************************************************

Host: Tricias-MBP

Timers On : Sat May 23 19:38:40 2020
Timers Off: Sat May 23 19:42:30 2020

Wall Time:      230.05 seconds

                                                       Time (seconds)
Module                                       User      System        Wall        Calls
Total PK formation time             :      1.433u      0.117s      0.922w      3 calls
HF: Form core H                     :      0.000u      0.000s      0.013w      3 calls
HF: Form S/X                        :      0.000u      0.000s      0.002w      3 calls
HF: Guess                           :      0.183u      0.017s      0.101w      3 calls
SAD Guess                           :      0.167u      0.017s      0.096w      2 calls
HF: Form G                          :      0.267u      0.000s      0.162w     18 calls
JK: D                               :      0.000u      0.000s      0.000w     18 calls
JK: USO2AO                          :      0.000u      0.000s      0.001w     18 calls
JK: JK                              :      0.267u      0.000s      0.159w     18 calls
PK computes JK                      :      0.267u      0.000s      0.159w     18 calls
JK: AO2USO                          :      0.000u      0.000s      0.001w     18 calls
HF: Form F                          :      0.000u      0.000s      0.000w     18 calls
HF: DIIS                            :      0.017u      0.017s      0.010w     16 calls
DIISManager::add_entry              :      0.017u      0.000s      0.002w     16 calls
DIISManager::extrapolate            :      0.000u      0.017s      0.001w     16 calls
bMatrix setup                       :      0.000u      0.000s      0.000w     16 calls
bMatrix pseudoinverse               :      0.000u      0.017s      0.000w     16 calls
New vector                          :      0.000u      0.000s      0.000w     16 calls
HF: Form C                          :      0.000u      0.000s      0.001w     16 calls
HF: Form D                          :      0.000u      0.000s      0.000w     18 calls

--------------------------------------------------------------------------------------
Total PK formation time             :      1.433u      0.117s      0.922w      3 calls
HF: Form core H                     :      0.000u      0.000s      0.013w      3 calls
HF: Form S/X                        :      0.000u      0.000s      0.002w      3 calls
HF: Guess                           :      0.183u      0.017s      0.101w      3 calls
| SAD Guess                         :      0.167u      0.017s      0.096w      2 calls
HF: Form G                          :      0.267u      0.000s      0.162w     18 calls
| JK: D                             :      0.000u      0.000s      0.000w     18 calls
| JK: USO2AO                        :      0.000u      0.000s      0.001w     18 calls
| JK: JK                            :      0.267u      0.000s      0.159w     18 calls
| | PK computes JK                  :      0.267u      0.000s      0.159w     18 calls
| JK: AO2USO                        :      0.000u      0.000s      0.001w     18 calls
HF: Form F                          :      0.000u      0.000s      0.000w     18 calls
HF: DIIS                            :      0.017u      0.017s      0.010w     16 calls
| DIISManager::add_entry            :      0.017u      0.000s      0.002w     16 calls
| DIISManager::extrapolate          :      0.000u      0.017s      0.001w     16 calls
| | bMatrix setup                   :      0.000u      0.000s      0.000w     16 calls
| | bMatrix pseudoinverse           :      0.000u      0.017s      0.000w     16 calls
| | New vector                      :      0.000u      0.000s      0.000w     16 calls
HF: Form C                          :      0.000u      0.000s      0.001w     16 calls
HF: Form D                          :      0.000u      0.000s      0.000w     18 calls

**************************************************************************************

Host: Tricias-MBP

Timers On : Sat May 23 19:42:31 2020
Timers Off: Sat May 23 19:47:40 2020

Wall Time:      308.46 seconds

                                                       Time (seconds)
Module                                       User      System        Wall        Calls
Total PK formation time             :      1.583u      0.100s      1.016w      8 calls
HF: Form core H                     :      0.000u      0.017s      0.020w      8 calls
HF: Form S/X                        :      0.000u      0.000s      0.002w      8 calls
HF: Guess                           :      0.500u      0.033s      0.320w      8 calls
SAD Guess                           :      0.500u      0.033s      0.306w      7 calls
HF: Form G                          :      0.300u      0.000s      0.167w     58 calls
JK: D                               :      0.000u      0.000s      0.000w     58 calls
JK: USO2AO                          :      0.017u      0.000s      0.002w     58 calls
JK: JK                              :      0.283u      0.000s      0.162w     58 calls
PK computes JK                      :      0.283u      0.000s      0.162w     58 calls
JK: AO2USO                          :      0.000u      0.000s      0.001w     58 calls
HF: Form F                          :      0.000u      0.000s      0.001w     58 calls
HF: DIIS                            :      0.017u      0.000s      0.032w     51 calls
DIISManager::add_entry              :      0.000u      0.000s      0.005w     51 calls
DIISManager::extrapolate            :      0.000u      0.000s      0.004w     51 calls
bMatrix setup                       :      0.000u      0.000s      0.001w     51 calls
bMatrix pseudoinverse               :      0.000u      0.000s      0.001w     51 calls
New vector                          :      0.000u      0.000s      0.001w     51 calls
HF: Form C                          :      0.017u      0.000s      0.002w     51 calls
HF: Form D                          :      0.000u      0.000s      0.000w     58 calls

--------------------------------------------------------------------------------------
Total PK formation time             :      1.583u      0.100s      1.016w      8 calls
HF: Form core H                     :      0.000u      0.017s      0.020w      8 calls
HF: Form S/X                        :      0.000u      0.000s      0.002w      8 calls
HF: Guess                           :      0.500u      0.033s      0.320w      8 calls
| SAD Guess                         :      0.500u      0.033s      0.306w      7 calls
HF: Form G                          :      0.300u      0.000s      0.167w     58 calls
| JK: D                             :      0.000u      0.000s      0.000w     58 calls
| JK: USO2AO                        :      0.017u      0.000s      0.002w     58 calls
| JK: JK                            :      0.283u      0.000s      0.162w     58 calls
| | PK computes JK                  :      0.283u      0.000s      0.162w     58 calls
| JK: AO2USO                        :      0.000u      0.000s      0.001w     58 calls
HF: Form F                          :      0.000u      0.000s      0.001w     58 calls
HF: DIIS                            :      0.017u      0.000s      0.032w     51 calls
| DIISManager::add_entry            :      0.000u      0.000s      0.005w     51 calls
| DIISManager::extrapolate          :      0.000u      0.000s      0.004w     51 calls
| | bMatrix setup                   :      0.000u      0.000s      0.001w     51 calls
| | bMatrix pseudoinverse           :      0.000u      0.000s      0.001w     51 calls
| | New vector                      :      0.000u      0.000s      0.001w     51 calls
HF: Form C                          :      0.017u      0.000s      0.002w     51 calls
HF: Form D                          :      0.000u      0.000s      0.000w     58 calls

**************************************************************************************

Host: Tricias-MBP

Timers On : Sat May 23 19:47:41 2020
Timers Off: Sat May 23 19:48:36 2020

Wall Time:       55.47 seconds

                                                       Time (seconds)
Module                                       User      System        Wall        Calls
Total PK formation time             :      1.867u      0.133s      1.211w      5 calls
HF: Form core H                     :      0.000u      0.033s      0.011w      5 calls
HF: Form S/X                        :      0.000u      0.000s      0.002w      5 calls
HF: Guess                           :      0.333u      0.017s      0.200w      5 calls
SAD Guess                           :      0.333u      0.017s      0.192w      4 calls
HF: Form G                          :      0.333u      0.000s      0.199w     34 calls
JK: D                               :      0.000u      0.000s      0.000w     34 calls
JK: USO2AO                          :      0.000u      0.000s      0.002w     34 calls
JK: JK                              :      0.333u      0.000s      0.195w     34 calls
PK computes JK                      :      0.333u      0.000s      0.195w     34 calls
JK: AO2USO                          :      0.000u      0.000s      0.001w     34 calls
HF: Form F                          :      0.000u      0.000s      0.001w     34 calls
HF: DIIS                            :      0.017u      0.017s      0.021w     30 calls
DIISManager::add_entry              :      0.000u      0.017s      0.004w     30 calls
DIISManager::extrapolate            :      0.000u      0.000s      0.003w     30 calls
bMatrix setup                       :      0.000u      0.000s      0.001w     30 calls
bMatrix pseudoinverse               :      0.000u      0.000s      0.001w     30 calls
New vector                          :      0.000u      0.000s      0.001w     30 calls
HF: Form C                          :      0.000u      0.000s      0.001w     30 calls
HF: Form D                          :      0.000u      0.000s      0.000w     34 calls

--------------------------------------------------------------------------------------
Total PK formation time             :      1.867u      0.133s      1.211w      5 calls
HF: Form core H                     :      0.000u      0.033s      0.011w      5 calls
HF: Form S/X                        :      0.000u      0.000s      0.002w      5 calls
HF: Guess                           :      0.333u      0.017s      0.200w      5 calls
| SAD Guess                         :      0.333u      0.017s      0.192w      4 calls
HF: Form G                          :      0.333u      0.000s      0.199w     34 calls
| JK: D                             :      0.000u      0.000s      0.000w     34 calls
| JK: USO2AO                        :      0.000u      0.000s      0.002w     34 calls
| JK: JK                            :      0.333u      0.000s      0.195w     34 calls
| | PK computes JK                  :      0.333u      0.000s      0.195w     34 calls
| JK: AO2USO                        :      0.000u      0.000s      0.001w     34 calls
HF: Form F                          :      0.000u      0.000s      0.001w     34 calls
HF: DIIS                            :      0.017u      0.017s      0.021w     30 calls
| DIISManager::add_entry            :      0.000u      0.017s      0.004w     30 calls
| DIISManager::extrapolate          :      0.000u      0.000s      0.003w     30 calls
| | bMatrix setup                   :      0.000u      0.000s      0.001w     30 calls
| | bMatrix pseudoinverse           :      0.000u      0.000s      0.001w     30 calls
| | New vector                      :      0.000u      0.000s      0.001w     30 calls
HF: Form C                          :      0.000u      0.000s      0.001w     30 calls
HF: Form D                          :      0.000u      0.000s      0.000w     34 calls

**************************************************************************************

Host: Tricias-MBP

Timers On : Sat May 23 19:48:37 2020
Timers Off: Sat May 23 19:50:36 2020

Wall Time:      119.43 seconds

                                                       Time (seconds)
Module                                       User      System        Wall        Calls
Total PK formation time             :      1.483u      0.117s      0.950w      3 calls
HF: Form core H                     :      0.017u      0.000s      0.011w      3 calls
HF: Form S/X                        :      0.000u      0.000s      0.001w      3 calls
HF: Guess                           :      0.150u      0.000s      0.096w      3 calls
SAD Guess                           :      0.150u      0.000s      0.092w      2 calls
HF: Form G                          :      0.283u      0.000s      0.166w     18 calls
JK: D                               :      0.000u      0.000s      0.000w     18 calls
JK: USO2AO                          :      0.017u      0.000s      0.001w     18 calls
JK: JK                              :      0.267u      0.000s      0.163w     18 calls
PK computes JK                      :      0.267u      0.000s      0.163w     18 calls
JK: AO2USO                          :      0.000u      0.000s      0.001w     18 calls
HF: Form F                          :      0.000u      0.000s      0.000w     18 calls
HF: DIIS                            :      0.017u      0.000s      0.010w     16 calls
DIISManager::add_entry              :      0.000u      0.000s      0.002w     16 calls
DIISManager::extrapolate            :      0.000u      0.000s      0.001w     16 calls
bMatrix setup                       :      0.000u      0.000s      0.000w     16 calls
bMatrix pseudoinverse               :      0.000u      0.000s      0.000w     16 calls
New vector                          :      0.000u      0.000s      0.000w     16 calls
HF: Form C                          :      0.000u      0.000s      0.001w     16 calls
HF: Form D                          :      0.000u      0.000s      0.000w     18 calls

--------------------------------------------------------------------------------------
Total PK formation time             :      1.483u      0.117s      0.950w      3 calls
HF: Form core H                     :      0.017u      0.000s      0.011w      3 calls
HF: Form S/X                        :      0.000u      0.000s      0.001w      3 calls
HF: Guess                           :      0.150u      0.000s      0.096w      3 calls
| SAD Guess                         :      0.150u      0.000s      0.092w      2 calls
HF: Form G                          :      0.283u      0.000s      0.166w     18 calls
| JK: D                             :      0.000u      0.000s      0.000w     18 calls
| JK: USO2AO                        :      0.017u      0.000s      0.001w     18 calls
| JK: JK                            :      0.267u      0.000s      0.163w     18 calls
| | PK computes JK                  :      0.267u      0.000s      0.163w     18 calls
| JK: AO2USO                        :      0.000u      0.000s      0.001w     18 calls
HF: Form F                          :      0.000u      0.000s      0.000w     18 calls
HF: DIIS                            :      0.017u      0.000s      0.010w     16 calls
| DIISManager::add_entry            :      0.000u      0.000s      0.002w     16 calls
| DIISManager::extrapolate          :      0.000u      0.000s      0.001w     16 calls
| | bMatrix setup                   :      0.000u      0.000s      0.000w     16 calls
| | bMatrix pseudoinverse           :      0.000u      0.000s      0.000w     16 calls
| | New vector                      :      0.000u      0.000s      0.000w     16 calls
HF: Form C                          :      0.000u      0.000s      0.001w     16 calls
HF: Form D                          :      0.000u      0.000s      0.000w     18 calls

**************************************************************************************

Host: Tricias-MBP

Timers On : Sat May 23 19:50:37 2020
Timers Off: Sat May 23 19:53:15 2020

Wall Time:      157.37 seconds

                                                       Time (seconds)
Module                                       User      System        Wall        Calls
Total PK formation time             :      1.500u      0.100s      0.957w      4 calls
HF: Form core H                     :      0.000u      0.000s      0.013w      4 calls
HF: Form S/X                        :      0.000u      0.000s      0.002w      4 calls
HF: Guess                           :      0.233u      0.033s      0.148w      4 calls
SAD Guess                           :      0.217u      0.000s      0.141w      3 calls
HF: Form G                          :      0.350u      0.017s      0.206w     26 calls
JK: D                               :      0.000u      0.000s      0.000w     26 calls
JK: USO2AO                          :      0.017u      0.000s      0.001w     26 calls
JK: JK                              :      0.333u      0.017s      0.202w     26 calls
PK computes JK                      :      0.333u      0.017s      0.202w     26 calls
JK: AO2USO                          :      0.000u      0.000s      0.001w     26 calls
HF: Form F                          :      0.000u      0.000s      0.001w     26 calls
HF: DIIS                            :      0.033u      0.000s      0.017w     23 calls
DIISManager::add_entry              :      0.000u      0.000s      0.003w     23 calls
DIISManager::extrapolate            :      0.000u      0.000s      0.002w     23 calls
bMatrix setup                       :      0.000u      0.000s      0.001w     23 calls
bMatrix pseudoinverse               :      0.000u      0.000s      0.001w     23 calls
New vector                          :      0.000u      0.000s      0.000w     23 calls
HF: Form C                          :      0.000u      0.000s      0.001w     23 calls
HF: Form D                          :      0.000u      0.000s      0.000w     26 calls

--------------------------------------------------------------------------------------
Total PK formation time             :      1.500u      0.100s      0.957w      4 calls
HF: Form core H                     :      0.000u      0.000s      0.013w      4 calls
HF: Form S/X                        :      0.000u      0.000s      0.002w      4 calls
HF: Guess                           :      0.233u      0.033s      0.148w      4 calls
| SAD Guess                         :      0.217u      0.000s      0.141w      3 calls
HF: Form G                          :      0.350u      0.017s      0.206w     26 calls
| JK: D                             :      0.000u      0.000s      0.000w     26 calls
| JK: USO2AO                        :      0.017u      0.000s      0.001w     26 calls
| JK: JK                            :      0.333u      0.017s      0.202w     26 calls
| | PK computes JK                  :      0.333u      0.017s      0.202w     26 calls
| JK: AO2USO                        :      0.000u      0.000s      0.001w     26 calls
HF: Form F                          :      0.000u      0.000s      0.001w     26 calls
HF: DIIS                            :      0.033u      0.000s      0.017w     23 calls
| DIISManager::add_entry            :      0.000u      0.000s      0.003w     23 calls
| DIISManager::extrapolate          :      0.000u      0.000s      0.002w     23 calls
| | bMatrix setup                   :      0.000u      0.000s      0.001w     23 calls
| | bMatrix pseudoinverse           :      0.000u      0.000s      0.001w     23 calls
| | New vector                      :      0.000u      0.000s      0.000w     23 calls
HF: Form C                          :      0.000u      0.000s      0.001w     23 calls
HF: Form D                          :      0.000u      0.000s      0.000w     26 calls

**************************************************************************************

Host: Tricias-MBP

Timers On : Sat May 23 19:53:16 2020
Timers Off: Sat May 23 20:03:04 2020

Wall Time:      588.29 seconds

                                                       Time (seconds)
Module                                       User      System        Wall        Calls
Total PK formation time             :      1.517u      0.100s      0.973w      3 calls
HF: Form core H                     :      0.000u      0.017s      0.011w      3 calls
HF: Form S/X                        :      0.000u      0.000s      0.002w      3 calls
HF: Guess                           :      0.150u      0.000s      0.098w      3 calls
SAD Guess                           :      0.150u      0.000s      0.094w      2 calls
HF: Form G                          :      0.333u      0.000s      0.191w     18 calls
JK: D                               :      0.000u      0.000s      0.000w     18 calls
JK: USO2AO                          :      0.000u      0.000s      0.002w     18 calls
JK: JK                              :      0.317u      0.000s      0.188w     18 calls
PK computes JK                      :      0.317u      0.000s      0.188w     18 calls
JK: AO2USO                          :      0.000u      0.000s      0.001w     18 calls
HF: Form F                          :      0.000u      0.000s      0.000w     18 calls
HF: DIIS                            :      0.017u      0.017s      0.011w     16 calls
DIISManager::add_entry              :      0.000u      0.017s      0.002w     16 calls
DIISManager::extrapolate            :      0.000u      0.000s      0.002w     16 calls
bMatrix setup                       :      0.000u      0.000s      0.000w     16 calls
bMatrix pseudoinverse               :      0.000u      0.000s      0.001w     16 calls
New vector                          :      0.000u      0.000s      0.000w     16 calls
HF: Form C                          :      0.000u      0.000s      0.001w     16 calls
HF: Form D                          :      0.000u      0.000s      0.000w     18 calls

--------------------------------------------------------------------------------------
Total PK formation time             :      1.517u      0.100s      0.973w      3 calls
HF: Form core H                     :      0.000u      0.017s      0.011w      3 calls
HF: Form S/X                        :      0.000u      0.000s      0.002w      3 calls
HF: Guess                           :      0.150u      0.000s      0.098w      3 calls
| SAD Guess                         :      0.150u      0.000s      0.094w      2 calls
HF: Form G                          :      0.333u      0.000s      0.191w     18 calls
| JK: D                             :      0.000u      0.000s      0.000w     18 calls
| JK: USO2AO                        :      0.000u      0.000s      0.002w     18 calls
| JK: JK                            :      0.317u      0.000s      0.188w     18 calls
| | PK computes JK                  :      0.317u      0.000s      0.188w     18 calls
| JK: AO2USO                        :      0.000u      0.000s      0.001w     18 calls
HF: Form F                          :      0.000u      0.000s      0.000w     18 calls
HF: DIIS                            :      0.017u      0.017s      0.011w     16 calls
| DIISManager::add_entry            :      0.000u      0.017s      0.002w     16 calls
| DIISManager::extrapolate          :      0.000u      0.000s      0.002w     16 calls
| | bMatrix setup                   :      0.000u      0.000s      0.000w     16 calls
| | bMatrix pseudoinverse           :      0.000u      0.000s      0.001w     16 calls
| | New vector                      :      0.000u      0.000s      0.000w     16 calls
HF: Form C                          :      0.000u      0.000s      0.001w     16 calls
HF: Form D                          :      0.000u      0.000s      0.000w     18 calls

**************************************************************************************

Host: Tricias-MBP

Timers On : Sat May 23 20:03:05 2020
Timers Off: Sat May 23 20:04:54 2020

Wall Time:      109.26 seconds

                                                       Time (seconds)
Module                                       User      System        Wall        Calls
Total PK formation time             :      1.617u      0.133s      1.037w      4 calls
HF: Form core H                     :      0.000u      0.000s      0.014w      4 calls
HF: Form S/X                        :      0.000u      0.000s      0.002w      4 calls
HF: Guess                           :      0.267u      0.017s      0.169w      4 calls
SAD Guess                           :      0.267u      0.017s      0.161w      3 calls
HF: Form G                          :      0.317u      0.000s      0.196w     26 calls
JK: D                               :      0.000u      0.000s      0.000w     26 calls
JK: USO2AO                          :      0.000u      0.000s      0.002w     26 calls
JK: JK                              :      0.317u      0.000s      0.192w     26 calls
PK computes JK                      :      0.317u      0.000s      0.192w     26 calls
JK: AO2USO                          :      0.000u      0.000s      0.001w     26 calls
HF: Form F                          :      0.000u      0.000s      0.001w     26 calls
HF: DIIS                            :      0.050u      0.000s      0.018w     23 calls
DIISManager::add_entry              :      0.000u      0.000s      0.004w     23 calls
[...]
Module                                       User      System        Wall        Calls
DFH: sparsity prep                  :      0.483u      0.000s      0.268w     38 calls
DFH: initialize()                   :      1.017u      0.117s      0.705w     38 calls
DFH: AO Construction                :      0.067u      0.000s      0.049w     38 calls
DFH: AO-Met. Contraction            :      0.000u      0.000s      0.008w     38 calls
HF: Form core H                     :      0.050u      0.117s      0.105w     38 calls
HF: Form S/X                        :      0.000u      0.000s      0.006w     38 calls
HF: Guess                           :      1.333u      0.050s      0.848w     38 calls
SAD Guess                           :      1.217u      0.050s      0.785w     28 calls
HF: Form G                          :      0.067u      0.000s      0.063w    241 calls
JK: D                               :      0.000u      0.000s      0.002w    241 calls
JK: USO2AO                          :      0.000u      0.000s      0.010w    241 calls
JK: JK                              :      0.067u      0.000s      0.035w    241 calls
DFH: compute_JK()                   :      0.067u      0.000s      0.033w    241 calls
DFH: Grabbing AOs                   :      0.000u      0.000s      0.000w    241 calls
DFH: compute_J                      :      0.050u      0.000s      0.017w    241 calls
DFH: compute_K                      :      0.017u      0.000s      0.012w    241 calls
JK: AO2USO                          :      0.000u      0.000s      0.007w    241 calls
HF: Form F                          :      0.033u      0.000s      0.008w    241 calls
HF: Form D                          :      0.000u      0.000s      0.003w    241 calls
HF: DIIS                            :      0.250u      0.050s      0.152w    213 calls
DIISManager::add_entry              :      0.033u      0.033s      0.030w    203 calls
DIISManager::extrapolate            :      0.000u      0.017s      0.018w    203 calls
bMatrix setup                       :      0.000u      0.017s      0.006w    203 calls
bMatrix pseudoinverse               :      0.000u      0.000s      0.006w    203 calls
New vector                          :      0.000u      0.000s      0.004w    203 calls
HF: Form C                          :      0.033u      0.000s      0.013w    213 calls
Grad: V T Perturb                   :      0.600u      0.083s      0.407w     12 calls
Grad: S                             :      0.000u      0.000s      0.001w     12 calls
Grad: JK                            :      0.950u      0.067s      0.640w     12 calls
JKGrad: Amn                         :      0.183u      0.017s      0.105w     12 calls
JKGrad: Awmn                        :      0.000u      0.000s      0.000w     12 calls
JKGrad: AB                          :      0.183u      0.033s      0.118w     12 calls
JKGrad: UV                          :      0.000u      0.000s      0.001w     12 calls
JKGrad: ABx                         :      0.167u      0.000s      0.088w     12 calls
JKGrad: Amnx                        :      0.250u      0.000s      0.170w     12 calls
Grad: XC                            :      0.000u      0.000s      0.000w     12 calls

--------------------------------------------------------------------------------------
DFH: sparsity prep                  :      0.483u      0.000s      0.268w     38 calls
DFH: initialize()                   :      1.017u      0.117s      0.705w     38 calls
| DFH: AO Construction              :      0.067u      0.000s      0.049w     38 calls
| DFH: AO-Met. Contraction          :      0.000u      0.000s      0.008w     38 calls
HF: Form core H                     :      0.050u      0.117s      0.105w     38 calls
HF: Form S/X                        :      0.000u      0.000s      0.006w     38 calls
HF: Guess                           :      1.333u      0.050s      0.848w     38 calls
| SAD Guess                         :      1.217u      0.050s      0.785w     28 calls
HF: Form G                          :      0.067u      0.000s      0.063w    241 calls
| JK: D                             :      0.000u      0.000s      0.002w    241 calls
| JK: USO2AO                        :      0.000u      0.000s      0.010w    241 calls
| JK: JK                            :      0.067u      0.000s      0.035w    241 calls
| | DFH: compute_JK()               :      0.067u      0.000s      0.033w    241 calls
| | | DFH: Grabbing AOs             :      0.000u      0.000s      0.000w    241 calls
| | | DFH: compute_J                :      0.050u      0.000s      0.017w    241 calls
| | | DFH: compute_K                :      0.017u      0.000s      0.012w    241 calls
| JK: AO2USO                        :      0.000u      0.000s      0.007w    241 calls
HF: Form F                          :      0.033u      0.000s      0.008w    241 calls
HF: Form D                          :      0.000u      0.000s      0.003w    241 calls
HF: DIIS                            :      0.250u      0.050s      0.152w    213 calls
| DIISManager::add_entry            :      0.033u      0.033s      0.030w    203 calls
| DIISManager::extrapolate          :      0.000u      0.017s      0.018w    203 calls
| | bMatrix setup                   :      0.000u      0.017s      0.006w    203 calls
| | bMatrix pseudoinverse           :      0.000u      0.000s      0.006w    203 calls
| | New vector                      :      0.000u      0.000s      0.004w    203 calls
HF: Form C                          :      0.033u      0.000s      0.013w    213 calls
Grad: V T Perturb                   :      0.600u      0.083s      0.407w     12 calls
Grad: S                             :      0.000u      0.000s      0.001w     12 calls
Grad: JK                            :      0.950u      0.067s      0.640w     12 calls
| JKGrad: Amn                       :      0.183u      0.017s      0.105w     12 calls
| JKGrad: Awmn                      :      0.000u      0.000s      0.000w     12 calls
| JKGrad: AB                        :      0.183u      0.033s      0.118w     12 calls
| JKGrad: UV                        :      0.000u      0.000s      0.001w     12 calls
| JKGrad: ABx                       :      0.167u      0.000s      0.088w     12 calls
| JKGrad: Amnx                      :      0.250u      0.000s      0.170w     12 calls
Grad: XC                            :      0.000u      0.000s      0.000w     12 calls

**************************************************************************************

Host: Tricias-MBP

Timers On : Wed Jun 10 18:09:56 2020
Timers Off: Wed Jun 10 18:21:17 2020

Wall Time:      680.65 seconds

                                                       Time (seconds)
Module                                       User      System        Wall        Calls
DFH: sparsity prep                  :      0.433u      0.000s      0.218w     32 calls
DFH: initialize()                   :      0.950u      0.033s      0.587w     32 calls
DFH: AO Construction                :      0.067u      0.000s      0.042w     32 calls
DFH: AO-Met. Contraction            :      0.017u      0.000s      0.006w     32 calls
HF: Form core H                     :      0.017u      0.133s      0.084w     32 calls
HF: Form S/X                        :      0.000u      0.000s      0.005w     32 calls
HF: Guess                           :      1.250u      0.067s      0.786w     32 calls
SAD Guess                           :      1.217u      0.067s      0.731w     27 calls
HF: Form G                          :      0.050u      0.000s      0.048w    201 calls
JK: D                               :      0.000u      0.000s      0.001w    201 calls
JK: USO2AO                          :      0.000u      0.000s      0.007w    201 calls
JK: JK                              :      0.033u      0.000s      0.027w    201 calls
DFH: compute_JK()                   :      0.033u      0.000s      0.026w    201 calls
DFH: Grabbing AOs                   :      0.000u      0.000s      0.000w    201 calls
DFH: compute_J                      :      0.033u      0.000s      0.013w    201 calls
DFH: compute_K                      :      0.000u      0.000s      0.010w    201 calls
JK: AO2USO                          :      0.017u      0.000s      0.006w    201 calls
HF: Form F                          :      0.000u      0.000s      0.006w    201 calls
HF: Form D                          :      0.000u      0.000s      0.002w    201 calls
HF: DIIS                            :      0.183u      0.017s      0.121w    174 calls
DIISManager::add_entry              :      0.000u      0.000s      0.025w    169 calls
DIISManager::extrapolate            :      0.017u      0.017s      0.014w    169 calls
bMatrix setup                       :      0.017u      0.000s      0.004w    169 calls
bMatrix pseudoinverse               :      0.000u      0.000s      0.005w    169 calls
New vector                          :      0.000u      0.017s      0.003w    169 calls
HF: Form C                          :      0.000u      0.000s      0.010w    174 calls
Grad: V T Perturb                   :      0.300u      0.050s      0.207w      6 calls
Grad: S                             :      0.000u      0.000s      0.001w      6 calls
Grad: JK                            :      0.483u      0.033s      0.325w      6 calls
JKGrad: Amn                         :      0.083u      0.000s      0.053w      6 calls
JKGrad: Awmn                        :      0.000u      0.000s      0.000w      6 calls
JKGrad: AB                          :      0.100u      0.017s      0.061w      6 calls
JKGrad: UV                          :      0.000u      0.000s      0.001w      6 calls
JKGrad: ABx                         :      0.067u      0.000s      0.045w      6 calls
JKGrad: Amnx                        :      0.150u      0.000s      0.086w      6 calls
Grad: XC                            :      0.000u      0.000s      0.000w      6 calls

--------------------------------------------------------------------------------------
DFH: sparsity prep                  :      0.433u      0.000s      0.218w     32 calls
DFH: initialize()                   :      0.950u      0.033s      0.587w     32 calls
| DFH: AO Construction              :      0.067u      0.000s      0.042w     32 calls
| DFH: AO-Met. Contraction          :      0.017u      0.000s      0.006w     32 calls
HF: Form core H                     :      0.017u      0.133s      0.084w     32 calls
HF: Form S/X                        :      0.000u      0.000s      0.005w     32 calls
HF: Guess                           :      1.250u      0.067s      0.786w     32 calls
| SAD Guess                         :      1.217u      0.067s      0.731w     27 calls
HF: Form G                          :      0.050u      0.000s      0.048w    201 calls
| JK: D                             :      0.000u      0.000s      0.001w    201 calls
| JK: USO2AO                        :      0.000u      0.000s      0.007w    201 calls
| JK: JK                            :      0.033u      0.000s      0.027w    201 calls
| | DFH: compute_JK()               :      0.033u      0.000s      0.026w    201 calls
| | | DFH: Grabbing AOs             :      0.000u      0.000s      0.000w    201 calls
| | | DFH: compute_J                :      0.033u      0.000s      0.013w    201 calls
| | | DFH: compute_K                :      0.000u      0.000s      0.010w    201 calls
| JK: AO2USO                        :      0.017u      0.000s      0.006w    201 calls
HF: Form F                          :      0.000u      0.000s      0.006w    201 calls
HF: Form D                          :      0.000u      0.000s      0.002w    201 calls
HF: DIIS                            :      0.183u      0.017s      0.121w    174 calls
| DIISManager::add_entry            :      0.000u      0.000s      0.025w    169 calls
| DIISManager::extrapolate          :      0.017u      0.017s      0.014w    169 calls
| | bMatrix setup                   :      0.017u      0.000s      0.004w    169 calls
| | bMatrix pseudoinverse           :      0.000u      0.000s      0.005w    169 calls
| | New vector                      :      0.000u      0.017s      0.003w    169 calls
HF: Form C                          :      0.000u      0.000s      0.010w    174 calls
Grad: V T Perturb                   :      0.300u      0.050s      0.207w      6 calls
Grad: S                             :      0.000u      0.000s      0.001w      6 calls
Grad: JK                            :      0.483u      0.033s      0.325w      6 calls
| JKGrad: Amn                       :      0.083u      0.000s      0.053w      6 calls
| JKGrad: Awmn                      :      0.000u      0.000s      0.000w      6 calls
| JKGrad: AB                        :      0.100u      0.017s      0.061w      6 calls
| JKGrad: UV                        :      0.000u      0.000s      0.001w      6 calls
| JKGrad: ABx                       :      0.067u      0.000s      0.045w      6 calls
| JKGrad: Amnx                      :      0.150u      0.000s      0.086w      6 calls
Grad: XC                            :      0.000u      0.000s      0.000w      6 calls

**************************************************************************************

Host: Tricias-MBP

Timers On : Wed Jun 10 18:21:22 2020
Timers Off: Wed Jun 10 18:24:55 2020

Wall Time:      213.31 seconds

                                                       Time (seconds)
Module                                       User      System        Wall        Calls
DFH: sparsity prep                  :      0.350u      0.000s      0.210w     32 calls
DFH: initialize()                   :      0.967u      0.033s      0.580w     32 calls
DFH: AO Construction                :      0.050u      0.000s      0.041w     32 calls
DFH: AO-Met. Contraction            :      0.017u      0.000s      0.007w     32 calls
HF: Form core H                     :      0.017u      0.117s      0.089w     32 calls
HF: Form S/X                        :      0.000u      0.000s      0.006w     32 calls
HF: Guess                           :      1.317u      0.033s      0.790w     32 calls
SAD Guess                           :      1.250u      0.033s      0.733w     27 calls
HF: Form G                          :      0.117u      0.000s      0.047w    201 calls
JK: D                               :      0.000u      0.000s      0.001w    201 calls
JK: USO2AO                          :      0.017u      0.000s      0.007w    201 calls
JK: JK                              :      0.067u      0.000s      0.026w    201 calls
DFH: compute_JK()                   :      0.050u      0.000s      0.025w    201 calls
DFH: Grabbing AOs                   :      0.000u      0.000s      0.000w    201 calls
DFH: compute_J                      :      0.033u      0.000s      0.012w    201 calls
DFH: compute_K                      :      0.017u      0.000s      0.010w    201 calls
JK: AO2USO                          :      0.017u      0.000s      0.006w    201 calls
HF: Form F                          :      0.017u      0.000s      0.006w    201 calls
HF: Form D                          :      0.000u      0.000s      0.002w    201 calls
HF: DIIS                            :      0.133u      0.083s      0.121w    174 calls
DIISManager::add_entry              :      0.000u      0.067s      0.025w    169 calls
DIISManager::extrapolate            :      0.017u      0.017s      0.014w    169 calls
bMatrix setup                       :      0.017u      0.017s      0.004w    169 calls
bMatrix pseudoinverse               :      0.000u      0.000s      0.004w    169 calls
New vector                          :      0.000u      0.000s      0.003w    169 calls
HF: Form C                          :      0.000u      0.000s      0.009w    174 calls
Grad: V T Perturb                   :      0.283u      0.017s      0.190w      6 calls
Grad: S                             :      0.000u      0.000s      0.000w      6 calls
Grad: JK                            :      0.433u      0.050s      0.303w      6 calls
JKGrad: Amn                         :      0.100u      0.017s      0.053w      6 calls
JKGrad: Awmn                        :      0.000u      0.000s      0.000w      6 calls
JKGrad: AB                          :      0.067u      0.017s      0.057w      6 calls
JKGrad: UV                          :      0.000u      0.000s      0.000w      6 calls
JKGrad: ABx                         :      0.083u      0.000s      0.040w      6 calls
JKGrad: Amnx                        :      0.117u      0.000s      0.076w      6 calls
Grad: XC                            :      0.000u      0.000s      0.000w      6 calls

--------------------------------------------------------------------------------------
DFH: sparsity prep                  :      0.350u      0.000s      0.210w     32 calls
DFH: initialize()                   :      0.967u      0.033s      0.580w     32 calls
| DFH: AO Construction              :      0.050u      0.000s      0.041w     32 calls
| DFH: AO-Met. Contraction          :      0.017u      0.000s      0.007w     32 calls
HF: Form core H                     :      0.017u      0.117s      0.089w     32 calls
HF: Form S/X                        :      0.000u      0.000s      0.006w     32 calls
HF: Guess                           :      1.317u      0.033s      0.790w     32 calls
| SAD Guess                         :      1.250u      0.033s      0.733w     27 calls
HF: Form G                          :      0.117u      0.000s      0.047w    201 calls
| JK: D                             :      0.000u      0.000s      0.001w    201 calls
| JK: USO2AO                        :      0.017u      0.000s      0.007w    201 calls
| JK: JK                            :      0.067u      0.000s      0.026w    201 calls
| | DFH: compute_JK()               :      0.050u      0.000s      0.025w    201 calls
| | | DFH: Grabbing AOs             :      0.000u      0.000s      0.000w    201 calls
| | | DFH: compute_J                :      0.033u      0.000s      0.012w    201 calls
| | | DFH: compute_K                :      0.017u      0.000s      0.010w    201 calls
| JK: AO2USO                        :      0.017u      0.000s      0.006w    201 calls
HF: Form F                          :      0.017u      0.000s      0.006w    201 calls
HF: Form D                          :      0.000u      0.000s      0.002w    201 calls
HF: DIIS                            :      0.133u      0.083s      0.121w    174 calls
| DIISManager::add_entry            :      0.000u      0.067s      0.025w    169 calls
| DIISManager::extrapolate          :      0.017u      0.017s      0.014w    169 calls
| | bMatrix setup                   :      0.017u      0.017s      0.004w    169 calls
| | bMatrix pseudoinverse           :      0.000u      0.000s      0.004w    169 calls
| | New vector                      :      0.000u      0.000s      0.003w    169 calls
HF: Form C                          :      0.000u      0.000s      0.009w    174 calls
Grad: V T Perturb                   :      0.283u      0.017s      0.190w      6 calls
Grad: S                             :      0.000u      0.000s      0.000w      6 calls
Grad: JK                            :      0.433u      0.050s      0.303w      6 calls
| JKGrad: Amn                       :      0.100u      0.017s      0.053w      6 calls
| JKGrad: Awmn                      :      0.000u      0.000s      0.000w      6 calls
| JKGrad: AB                        :      0.067u      0.017s      0.057w      6 calls
| JKGrad: UV                        :      0.000u      0.000s      0.000w      6 calls
| JKGrad: ABx                       :      0.083u      0.000s      0.040w      6 calls
| JKGrad: Amnx                      :      0.117u      0.000s      0.076w      6 calls
Grad: XC                            :      0.000u      0.000s      0.000w      6 calls

**************************************************************************************
